#Header

19120 atoms

1 atom types

0.0 125.74581503970619 xlo xhi
0.0 40.5 ylo yhi
0.0 62.872907519853094 zlo zhi


Atoms

1 1 0.39132515053850486 0.0 6.391644125462244 
2 1 0.9130920179231777 2.025 4.43501837276972 
3 1 1.4348588853078508 0.0 2.4783926200771966 
4 1 0.0 0.0 0.0 
5 1 1.9566257526925237 2.025 0.5217668673846729 
6 1 0.130441716846169 0.0 23.08818388177178 
7 1 0.6522085842308419 2.025 21.131558129079256 
8 1 1.173975451615515 0.0 19.17493237638673 
9 1 1.695742319000188 2.025 17.218306623694208 
10 1 2.2175091863848606 0.0 15.261680871001685 
11 1 0.26088343369233685 2.025 14.739914003617011 
12 1 0.7826503010770097 0.0 12.783288250924487 
13 1 2.7392760537695335 2.025 13.305055118309161 
14 1 3.2610429211542065 0.0 11.348429365616637 
15 1 1.3044171684616825 2.025 10.826662498231965 
16 1 1.8261840358463555 0.0 8.87003674553944 
17 1 3.7828097885388794 2.025 9.391803612924114 
18 1 4.304576655923553 0.0 7.435177860231589 
19 1 2.3479509032310286 2.025 6.913410992846917 
20 1 2.8697177706157015 0.0 4.956785240154393 
21 1 4.826343523308226 2.025 5.478552107539066 
22 1 5.348110390692898 0.0 3.521926354846543 
23 1 3.3914846380003745 2.025 3.000159487461869 
24 1 3.9132515053850474 0.0 1.0435337347693459 
25 1 5.8698772580775715 2.025 1.5653006021540188 
26 1 0.39132515053850536 2.025 37.82809788538879 
27 1 0.9130920179231783 0.0 35.87147213269627 
28 1 1.4348588853078512 2.025 33.914846380003745 
29 1 1.9566257526925241 0.0 31.95822062731122 
30 1 7.517748570761259e-16 2.025 31.436453759926547 
31 1 0.5217668673846737 0.0 29.479828007234023 
32 1 2.478392620077197 2.025 30.001594874618696 
33 1 3.00015948746187 0.0 28.044969121926172 
34 1 1.0435337347693465 2.025 27.5232022545415 
35 1 1.5653006021540194 0.0 25.566576501848974 
36 1 3.5219263548465434 2.025 26.088343369233648 
37 1 4.043693222231216 0.0 24.131717616541124 
38 1 2.0870674695386926 2.025 23.60995074915645 
39 1 2.608834336923365 0.0 21.65332499646393 
40 1 4.565460089615889 2.025 22.1750918638486 
41 1 5.087226957000561 0.0 20.21846611115608 
42 1 3.130601204308038 2.025 19.696699243771405 
43 1 3.652368071692711 0.0 17.74007349107888 
44 1 5.608993824385235 2.025 18.261840358463555 
45 1 6.130760691769908 0.0 16.30521460577103 
46 1 4.174134939077383 2.025 15.783447738386357 
47 1 4.695901806462057 0.0 13.826821985693835 
48 1 6.6525275591545805 2.025 14.348588853078505 
49 1 7.1742944265392525 0.0 12.391963100385983 
50 1 5.21766867384673 2.025 11.87019623300131 
51 1 5.739435541231403 0.0 9.913570480308787 
52 1 7.696061293923926 2.025 10.435337347693459 
53 1 8.2178281613086 0.0 8.478711595000936 
54 1 6.261202408616075 2.025 7.956944727616263 
55 1 6.782969276000749 0.0 6.000318974923738 
56 1 8.739595028693271 2.025 6.522085842308412 
57 1 9.261361896077945 0.0 4.565460089615889 
58 1 7.304736143385422 2.025 4.043693222231215 
59 1 7.826503010770095 0.0 2.0870674695386917 
60 1 9.783128763462617 2.025 2.6088343369233646 
61 1 10.304895630847291 0.0 0.6522085842308412 
62 1 8.348269878154767 2.025 0.1304417168461682 
63 1 0.13044171684616887 2.025 54.52463764169833 
64 1 0.6522085842308417 0.0 52.5680118890058 
65 1 1.1739754516155148 2.025 50.61138613631328 
66 1 1.6957423190001877 0.0 48.654760383620754 
67 1 0.260883433692338 0.0 46.17636776354356 
68 1 2.2175091863848606 2.025 46.69813463092823 
69 1 2.7392760537695335 0.0 44.741508878235706 
70 1 0.782650301077011 2.025 44.219742010851036 
71 1 1.3044171684616839 0.0 42.26311625815851 
72 1 3.2610429211542065 2.025 42.78488312554318 
73 1 3.7828097885388794 0.0 40.82825737285066 
74 1 1.8261840358463568 2.025 40.30649050546599 
75 1 2.34795090323103 0.0 38.34986475277346 
76 1 4.304576655923552 2.025 38.871631620158134 
77 1 4.826343523308225 0.0 36.91500586746561 
78 1 2.869717770615703 2.025 36.39323900008094 
79 1 3.391484638000376 0.0 34.436613247388415 
80 1 5.348110390692898 2.025 34.95838011477309 
81 1 5.8698772580775715 0.0 33.00175436208057 
82 1 3.9132515053850487 2.025 32.47998749469589 
83 1 4.435018372769721 0.0 30.52336174200337 
84 1 6.391644125462244 2.025 31.045128609388044 
85 1 6.9134109928469165 0.0 29.08850285669552 
86 1 4.956785240154393 2.025 28.566735989310846 
87 1 5.478552107539067 0.0 26.610110236618322 
88 1 7.435177860231589 2.025 27.131877104002996 
89 1 7.956944727616263 0.0 25.17525135131047 
90 1 6.00031897492374 2.025 24.653484483925798 
91 1 6.522085842308413 0.0 22.696858731233274 
92 1 8.478711595000936 2.025 23.218625598617948 
93 1 9.000478462385608 0.0 21.261999845925423 
94 1 7.043852709693086 2.025 20.740232978540753 
95 1 7.565619577077759 0.0 18.78360722584823 
96 1 9.522245329770282 2.025 19.305374093232903 
97 1 10.044012197154954 0.0 17.348748340540375 
98 1 8.087386444462432 2.025 16.826981473155705 
99 1 8.609153311847106 0.0 14.870355720463179 
100 1 10.565779064539626 2.025 15.392122587847853 
101 1 11.0875459319243 0.0 13.435496835155329 
102 1 9.130920179231778 2.025 12.913729967770657 
103 1 9.652687046616451 0.0 10.957104215078132 
104 1 11.609312799308974 2.025 11.478871082462806 
105 1 12.131079666693646 0.0 9.522245329770282 
106 1 10.174453914001123 2.025 9.000478462385608 
107 1 10.696220781385795 0.0 7.043852709693086 
108 1 12.65284653407832 2.025 7.565619577077758 
109 1 13.174613401462992 0.0 5.608993824385235 
110 1 11.21798764877047 2.025 5.087226957000561 
111 1 11.739754516155143 0.0 3.1306012043080376 
112 1 13.696380268847665 2.025 3.6523680716927105 
113 1 14.218147136232338 0.0 1.6957423190001872 
114 1 12.261521383539815 2.025 1.1739754516155143 
115 1 2.4783926200771966 0.0 61.43804863454524 
116 1 0.5217668673846744 2.025 60.91628176716057 
117 1 1.0435337347693474 0.0 58.959656014468045 
118 1 3.0001594874618696 2.025 59.481422881852716 
119 1 3.521926354846543 0.0 57.52479712916019 
120 1 1.5653006021540201 2.025 57.00303026177552 
121 1 2.087067469538693 0.0 55.046404509083 
122 1 4.043693222231216 2.025 55.568171376467674 
123 1 4.565460089615889 0.0 53.61154562377515 
124 1 2.608834336923366 2.025 53.08977875639047 
125 1 3.130601204308039 0.0 51.13315300369795 
126 1 5.087226957000562 2.025 51.654919871082626 
127 1 5.6089938243852355 0.0 49.6982941183901 
128 1 3.652368071692712 2.025 49.176527251005425 
129 1 4.174134939077385 0.0 47.2199014983129 
130 1 6.130760691769908 2.025 47.74166836569758 
131 1 6.65252755915458 0.0 45.785042613005054 
132 1 4.695901806462057 2.025 45.26327574562038 
133 1 5.21766867384673 0.0 43.30664999292786 
134 1 7.1742944265392525 2.025 43.82841686031253 
135 1 7.696061293923926 0.0 41.871791107620005 
136 1 5.739435541231404 2.025 41.350024240235335 
137 1 6.261202408616076 0.0 39.39339848754281 
138 1 8.217828161308598 2.025 39.91516535492748 
139 1 8.739595028693271 0.0 37.95853960223496 
140 1 6.782969276000749 2.025 37.43677273485029 
141 1 7.304736143385422 0.0 35.48014698215776 
142 1 9.261361896077945 2.025 36.00191384954244 
143 1 9.783128763462617 0.0 34.045288096849916 
144 1 7.826503010770096 2.025 33.52352122946524 
145 1 8.348269878154767 0.0 31.566895476772714 
146 1 10.304895630847291 2.025 32.088662344157385 
147 1 10.826662498231963 0.0 30.132036591464868 
148 1 8.87003674553944 2.025 29.610269724080194 
149 1 9.391803612924114 0.0 27.65364397138767 
150 1 11.348429365616637 2.025 28.175410838772343 
151 1 11.87019623300131 0.0 26.218785086079816 
152 1 9.913570480308787 2.025 25.697018218695145 
153 1 10.43533734769346 0.0 23.74039246600262 
154 1 12.391963100385981 2.025 24.26215933338729 
155 1 12.913729967770655 0.0 22.305533580694767 
156 1 10.957104215078132 2.025 21.783766713310094 
157 1 11.478871082462806 0.0 19.827140960617573 
158 1 13.435496835155329 2.025 20.348907828002243 
159 1 13.957263702540002 0.0 18.392282075309723 
160 1 12.000637949847478 2.025 17.87051520792505 
161 1 12.52240481723215 0.0 15.913889455232527 
162 1 14.479030569924674 2.025 16.4356563226172 
163 1 15.000797437309346 0.0 14.479030569924674 
164 1 13.044171684616824 2.025 13.957263702540002 
165 1 13.565938552001498 0.0 12.000637949847476 
166 1 15.52256430469402 2.025 12.52240481723215 
167 1 16.044331172078692 0.0 10.565779064539628 
168 1 14.087705419386172 2.025 10.044012197154954 
169 1 14.609472286770844 0.0 8.08738644446243 
170 1 16.566098039463366 2.025 8.609153311847104 
171 1 17.08786490684804 0.0 6.6525275591545805 
172 1 15.131239154155516 2.025 6.130760691769907 
173 1 15.65300602154019 0.0 4.174134939077383 
174 1 17.60963177423271 2.025 4.695901806462057 
175 1 18.131398641617384 0.0 2.7392760537695335 
176 1 16.174772888924863 2.025 2.21750918638486 
177 1 16.696539756309534 0.0 0.2608834336923364 
178 1 18.653165509002058 2.025 0.7826503010770098 
179 1 6.391644125462245 0.0 62.48158236931459 
180 1 4.435018372769721 2.025 61.95981550192992 
181 1 4.956785240154394 0.0 60.00318974923739 
182 1 6.913410992846919 2.025 60.52495661662206 
183 1 7.435177860231592 0.0 58.56833086392954 
184 1 5.478552107539068 2.025 58.04656399654487 
185 1 6.00031897492374 0.0 56.089938243852345 
186 1 7.956944727616265 2.025 56.611705111237015 
187 1 8.478711595000936 0.0 54.65507935854449 
188 1 6.522085842308413 2.025 54.13331249115982 
189 1 7.043852709693087 0.0 52.176686738467296 
190 1 9.00047846238561 2.025 52.698453605851974 
191 1 9.522245329770284 0.0 50.74182785315945 
192 1 7.56561957707776 2.025 50.22006098577477 
193 1 8.087386444462432 0.0 48.26343523308225 
194 1 10.044012197154956 2.025 48.785202100466925 
195 1 10.565779064539628 0.0 46.8285763477744 
196 1 8.609153311847104 2.025 46.306809480389724 
197 1 9.130920179231778 0.0 44.3501837276972 
198 1 11.087545931924302 2.025 44.87195059508188 
199 1 11.609312799308976 0.0 42.91532484238935 
200 1 9.652687046616451 2.025 42.39355797500468 
201 1 10.174453914001122 0.0 40.43693222231216 
202 1 12.131079666693646 2.025 40.95869908969683 
203 1 12.65284653407832 0.0 39.002073337004305 
204 1 10.696220781385795 2.025 38.480306469619634 
205 1 11.21798764877047 0.0 36.52368071692711 
206 1 13.174613401462993 2.025 37.04544758431178 
207 1 13.696380268847667 0.0 35.088821831619256 
208 1 11.739754516155143 2.025 34.567054964234586 
209 1 12.261521383539815 0.0 32.61042921154206 
210 1 14.21814713623234 2.025 33.13219607892673 
211 1 14.739914003617011 0.0 31.175570326234208 
212 1 12.783288250924487 2.025 30.653803458849534 
213 1 13.305055118309161 0.0 28.69717770615701 
214 1 15.261680871001685 2.025 29.218944573541684 
215 1 15.783447738386359 0.0 27.26231882084916 
216 1 13.826821985693835 2.025 26.74055195346449 
217 1 14.348588853078505 0.0 24.783926200771965 
218 1 16.30521460577103 2.025 25.30569306815664 
219 1 16.826981473155705 0.0 23.349067315464115 
220 1 14.870355720463179 2.025 22.82730044807944 
221 1 15.392122587847853 0.0 20.870674695386917 
222 1 17.348748340540375 2.025 21.39244156277159 
223 1 17.87051520792505 0.0 19.435815810079067 
224 1 15.913889455232527 2.025 18.914048942694393 
225 1 16.4356563226172 0.0 16.957423190001872 
226 1 18.392282075309723 2.025 17.479190057386543 
227 1 18.914048942694397 0.0 15.52256430469402 
228 1 16.957423190001872 2.025 15.000797437309348 
229 1 17.479190057386543 0.0 13.044171684616824 
230 1 19.435815810079067 2.025 13.565938552001498 
231 1 19.95758267746374 0.0 11.609312799308974 
232 1 18.000956924771216 2.025 11.0875459319243 
233 1 18.52272379215589 0.0 9.130920179231778 
234 1 20.479349544848414 2.025 9.65268704661645 
235 1 21.00111641223309 0.0 7.6960612939239255 
236 1 19.044490659540564 2.025 7.1742944265392525 
237 1 19.566257526925234 0.0 5.217668673846729 
238 1 21.522883279617762 2.025 5.739435541231402 
239 1 22.044650147002432 0.0 3.7828097885388785 
240 1 20.088024394309908 2.025 3.261042921154206 
241 1 20.609791261694582 0.0 1.3044171684616823 
242 1 22.566417014387106 2.025 1.8261840358463548 
243 1 8.870036745539442 0.0 61.04672348400674 
244 1 10.826662498231967 2.025 61.56849035139141 
245 1 11.34842936561664 0.0 59.61186459869889 
246 1 9.391803612924116 2.025 59.090097731314216 
247 1 9.913570480308787 0.0 57.13347197862169 
248 1 11.870196233001312 2.025 57.65523884600636 
249 1 12.391963100385984 0.0 55.69861309331384 
250 1 10.43533734769346 2.025 55.17684622592917 
251 1 10.957104215078134 0.0 53.220220473236644 
252 1 12.913729967770658 2.025 53.741987340621314 
253 1 13.435496835155332 0.0 51.7853615879288 
254 1 11.478871082462808 2.025 51.26359472054412 
255 1 12.00063794984748 0.0 49.306968967851596 
256 1 13.957263702540006 2.025 49.82873583523627 
257 1 14.479030569924676 0.0 47.87211008254375 
258 1 12.522404817232152 2.025 47.35034321515907 
259 1 13.044171684616826 0.0 45.39371746246655 
260 1 15.00079743730935 2.025 45.915484329851225 
261 1 15.522564304694024 0.0 43.9588585771587 
262 1 13.5659385520015 2.025 43.43709170977402 
263 1 14.087705419386172 0.0 41.480465957081506 
264 1 16.044331172078696 2.025 42.00223282446618 
265 1 16.56609803946337 0.0 40.04560707177365 
266 1 14.609472286770844 2.025 39.52384020438898 
267 1 15.131239154155518 0.0 37.56721445169646 
268 1 17.087864906848043 2.025 38.08898131908113 
269 1 17.609631774232714 0.0 36.132355566388604 
270 1 15.653006021540191 2.025 35.610588699003934 
271 1 16.174772888924863 0.0 33.65396294631141 
272 1 18.131398641617388 2.025 34.17572981369608 
273 1 18.65316550900206 0.0 32.219104061003556 
274 1 16.696539756309537 2.025 31.697337193618882 
275 1 17.21830662369421 0.0 29.740711440926358 
276 1 19.174932376386735 2.025 30.26247830831103 
277 1 19.696699243771405 0.0 28.305852555618507 
278 1 17.74007349107888 2.025 27.784085688233834 
279 1 18.261840358463555 0.0 25.827459935541313 
280 1 20.21846611115608 2.025 26.349226802925987 
281 1 20.740232978540753 0.0 24.392601050233463 
282 1 18.78360722584823 2.025 23.87083418284879 
283 1 19.305374093232903 0.0 21.914208430156265 
284 1 21.261999845925427 2.025 22.43597529754094 
285 1 21.783766713310097 0.0 20.479349544848414 
286 1 19.827140960617573 2.025 19.95758267746374 
287 1 20.348907828002247 0.0 18.000956924771216 
288 1 22.30553358069477 2.025 18.52272379215589 
289 1 22.827300448079445 0.0 16.56609803946337 
290 1 20.87067469538692 2.025 16.044331172078692 
291 1 21.39244156277159 0.0 14.087705419386172 
292 1 23.349067315464115 2.025 14.609472286770844 
293 1 23.87083418284879 0.0 12.65284653407832 
294 1 21.914208430156265 2.025 12.131079666693646 
295 1 22.43597529754094 0.0 10.174453914001122 
296 1 24.392601050233463 2.025 10.696220781385795 
297 1 24.914367917618137 0.0 8.739595028693273 
298 1 22.957742164925612 2.025 8.2178281613086 
299 1 23.479509032310286 0.0 6.261202408616075 
300 1 25.43613478500281 2.025 6.782969276000749 
301 1 25.957901652387484 0.0 4.826343523308226 
302 1 24.001275899694956 2.025 4.304576655923552 
303 1 24.52304276707963 0.0 2.3479509032310286 
304 1 26.479668519772154 2.025 2.869717770615702 
305 1 27.00143538715683 0.0 0.913092017923178 
306 1 25.044809634464304 2.025 0.3913251505385046 
307 1 12.783288250924487 0.0 62.09025721877609 
308 1 14.739914003617011 2.025 62.61202408616076 
309 1 15.261680871001685 0.0 60.655398333468234 
310 1 13.305055118309161 2.025 60.133631466083564 
311 1 13.826821985693833 0.0 58.17700571339104 
312 1 15.783447738386357 2.025 58.69877258077571 
313 1 16.30521460577103 0.0 56.742146828083186 
314 1 14.348588853078505 2.025 56.220379960698516 
315 1 14.870355720463179 0.0 54.26375420800599 
316 1 16.826981473155705 2.025 54.78552107539066 
317 1 17.348748340540375 0.0 52.82889532269814 
318 1 15.392122587847853 2.025 52.30712845531347 
319 1 15.913889455232527 0.0 50.35050270262094 
320 1 17.87051520792505 2.025 50.872269570005614 
321 1 18.392282075309723 0.0 48.9156438173131 
322 1 16.4356563226172 2.025 48.39387694992842 
323 1 16.957423190001872 0.0 46.437251197235895 
324 1 18.914048942694397 2.025 46.95901806462057 
325 1 19.435815810079067 0.0 45.00239231192805 
326 1 17.479190057386543 2.025 44.48062544454337 
327 1 18.000956924771216 0.0 42.52399969185085 
328 1 19.95758267746374 2.025 43.045766559235524 
329 1 20.479349544848414 0.0 41.089140806543 
330 1 18.52272379215589 2.025 40.56737393915833 
331 1 19.044490659540564 0.0 38.610748186465806 
332 1 21.00111641223309 2.025 39.13251505385047 
333 1 21.522883279617762 0.0 37.175889301157945 
334 1 19.566257526925234 2.025 36.65412243377328 
335 1 20.088024394309908 0.0 34.69749668108075 
336 1 22.044650147002432 2.025 35.21926354846542 
337 1 22.566417014387106 0.0 33.262637795772896 
338 1 20.609791261694582 2.025 32.740870928388226 
339 1 21.131558129079252 0.0 30.784245175695705 
340 1 23.088183881771776 2.025 31.30601204308038 
341 1 23.60995074915645 0.0 29.349386290387855 
342 1 21.653324996463926 2.025 28.82761942300318 
343 1 22.1750918638486 0.0 26.870993670310657 
344 1 24.131717616541124 2.025 27.39276053769533 
345 1 24.653484483925798 0.0 25.436134785002807 
346 1 22.696858731233274 2.025 24.914367917618137 
347 1 23.218625598617948 0.0 22.957742164925612 
348 1 25.17525135131047 2.025 23.479509032310286 
349 1 25.697018218695145 0.0 21.522883279617762 
350 1 23.74039246600262 2.025 21.00111641223309 
351 1 24.26215933338729 0.0 19.044490659540564 
352 1 26.218785086079816 2.025 19.566257526925234 
353 1 26.74055195346449 0.0 17.60963177423271 
354 1 24.783926200771965 2.025 17.08786490684804 
355 1 25.30569306815664 0.0 15.131239154155516 
356 1 27.262318820849163 2.025 15.653006021540188 
357 1 27.784085688233834 0.0 13.696380268847665 
358 1 25.82745993554131 2.025 13.174613401462992 
359 1 26.349226802925983 0.0 11.21798764877047 
360 1 28.305852555618507 2.025 11.739754516155141 
361 1 28.82761942300318 0.0 9.783128763462617 
362 1 26.870993670310657 2.025 9.261361896077945 
363 1 27.39276053769533 0.0 7.304736143385421 
364 1 29.349386290387855 2.025 7.826503010770094 
365 1 29.87115315777253 0.0 5.869877258077571 
366 1 27.914527405080005 2.025 5.348110390692898 
367 1 28.436294272464675 0.0 3.3914846380003745 
368 1 30.3929200251572 2.025 3.913251505385047 
369 1 30.914686892541873 0.0 1.956625752692523 
370 1 28.95806113984935 2.025 1.4348588853078506 
371 1 31.436453759926543 2.025 -5.971461178434393e-16 
372 1 19.174932376386728 0.0 61.69893206823758 
373 1 17.218306623694208 2.025 61.177165200852905 
374 1 17.74007349107888 0.0 59.22053944816039 
375 1 19.696699243771402 2.025 59.74230631554506 
376 1 20.218466111156076 0.0 57.785680562852534 
377 1 18.261840358463555 2.025 57.26391369546786 
378 1 18.78360722584823 0.0 55.30728794277534 
379 1 20.74023297854075 2.025 55.82905481016001 
380 1 21.261999845925423 0.0 53.872429057467485 
381 1 19.305374093232903 2.025 53.350662190082815 
382 1 19.827140960617573 0.0 51.39403643739029 
383 1 21.783766713310094 2.025 51.91580330477496 
384 1 22.305533580694767 0.0 49.95917755208244 
385 1 20.348907828002247 2.025 49.43741068469777 
386 1 20.87067469538692 0.0 47.48078493200524 
387 1 22.827300448079438 2.025 48.00255179938991 
388 1 23.34906731546411 0.0 46.04592604669739 
389 1 21.39244156277159 2.025 45.52415917931271 
390 1 21.914208430156265 0.0 43.56753342662019 
391 1 23.870834182848785 2.025 44.089300294004865 
392 1 24.39260105023346 0.0 42.13267454131234 
393 1 22.43597529754094 2.025 41.61090767392766 
394 1 22.957742164925612 0.0 39.654281921235146 
395 1 24.914367917618133 2.025 40.176048788619816 
396 1 25.436134785002807 0.0 38.21942303592729 
397 1 23.479509032310286 2.025 37.69765616854262 
398 1 24.001275899694956 0.0 35.7410304158501 
399 1 25.95790165238748 2.025 36.26279728323477 
400 1 26.47966851977215 0.0 34.306171530542244 
401 1 24.52304276707963 2.025 33.784404663157574 
402 1 25.0448096344643 0.0 31.827778910465053 
403 1 27.001435387156825 2.025 32.34954577784973 
404 1 27.523202254541495 0.0 30.3929200251572 
405 1 25.566576501848974 2.025 29.87115315777253 
406 1 26.088343369233648 0.0 27.914527405080005 
407 1 28.04496912192617 2.025 28.436294272464675 
408 1 28.566735989310843 0.0 26.47966851977215 
409 1 26.610110236618322 2.025 25.95790165238748 
410 1 27.131877104002996 0.0 24.001275899694953 
411 1 29.088502856695516 2.025 24.52304276707963 
412 1 29.61026972408019 0.0 22.566417014387106 
413 1 27.65364397138767 2.025 22.044650147002432 
414 1 28.175410838772343 0.0 20.088024394309908 
415 1 30.132036591464864 2.025 20.609791261694582 
416 1 30.653803458849534 0.0 18.653165509002058 
417 1 28.697177706157014 2.025 18.131398641617384 
418 1 29.218944573541688 0.0 16.17477288892486 
419 1 31.175570326234205 2.025 16.696539756309534 
420 1 31.69733719361888 0.0 14.739914003617011 
421 1 29.740711440926358 2.025 14.218147136232338 
422 1 30.26247830831103 0.0 12.261521383539813 
423 1 32.219104061003556 2.025 12.783288250924487 
424 1 32.740870928388226 0.0 10.826662498231965 
425 1 30.784245175695705 2.025 10.304895630847291 
426 1 31.30601204308038 0.0 8.348269878154767 
427 1 33.262637795772896 2.025 8.87003674553944 
428 1 33.78440466315757 0.0 6.913410992846917 
429 1 31.827778910465053 2.025 6.391644125462244 
430 1 32.34954577784973 0.0 4.43501837276972 
431 1 34.306171530542244 2.025 4.956785240154393 
432 1 34.827938397926914 0.0 3.0001594874618696 
433 1 32.8713126452344 2.025 2.478392620077196 
434 1 33.39307951261907 0.0 0.5217668673846728 
435 1 35.34970526531159 2.025 1.0435337347693463 
436 1 23.088183881771776 0.0 62.74246580300693 
437 1 21.131558129079252 2.025 62.22069893562225 
438 1 21.653324996463926 0.0 60.264073182929735 
439 1 23.60995074915645 2.025 60.7858400503144 
440 1 24.131717616541124 0.0 58.829214297621874 
441 1 22.1750918638486 2.025 58.30744743023721 
442 1 22.696858731233274 0.0 56.35082167754469 
443 1 24.653484483925798 2.025 56.87258854492935 
444 1 25.17525135131047 0.0 54.915962792236826 
445 1 23.218625598617948 2.025 54.394195924852156 
446 1 23.74039246600262 0.0 52.43757017215963 
447 1 25.697018218695145 2.025 52.9593370395443 
448 1 26.218785086079816 0.0 51.00271128685178 
449 1 24.26215933338729 2.025 50.48094441946711 
450 1 24.783926200771962 0.0 48.52431866677458 
451 1 26.740551953464486 2.025 49.04608553415925 
452 1 27.26231882084916 0.0 47.08945978146673 
453 1 25.305693068156636 2.025 46.56769291408206 
454 1 25.82745993554131 0.0 44.611067161389535 
455 1 27.784085688233834 2.025 45.13283402877421 
456 1 28.305852555618507 0.0 43.17620827608169 
457 1 26.349226802925983 2.025 42.65444140869701 
458 1 26.870993670310657 0.0 40.69781565600449 
459 1 28.82761942300318 2.025 41.219582523389164 
460 1 29.349386290387855 0.0 39.26295677069664 
461 1 27.39276053769533 2.025 38.74118990331197 
462 1 27.914527405080005 0.0 36.784564150619445 
463 1 29.87115315777253 2.025 37.306331018004116 
464 1 30.3929200251572 0.0 35.34970526531159 
465 1 28.436294272464675 2.025 34.82793839792692 
466 1 28.95806113984935 0.0 32.8713126452344 
467 1 30.914686892541873 2.025 33.39307951261907 
468 1 31.436453759926543 0.0 31.436453759926543 
469 1 29.47982800723402 2.025 30.914686892541873 
470 1 30.001594874618693 0.0 28.95806113984935 
471 1 31.958220627311217 2.025 29.479828007234023 
472 1 32.47998749469589 0.0 27.5232022545415 
473 1 30.523361742003367 2.025 27.001435387156825 
474 1 31.04512860938804 0.0 25.0448096344643 
475 1 33.00175436208057 2.025 25.566576501848974 
476 1 33.52352122946524 0.0 23.60995074915645 
477 1 31.566895476772714 2.025 23.08818388177178 
478 1 32.088662344157385 0.0 21.131558129079256 
479 1 34.04528809684991 2.025 21.653324996463926 
480 1 34.567054964234586 0.0 19.696699243771405 
481 1 32.61042921154206 2.025 19.17493237638673 
482 1 33.13219607892673 0.0 17.218306623694208 
483 1 35.088821831619256 2.025 17.74007349107888 
484 1 35.610588699003934 0.0 15.783447738386357 
485 1 33.65396294631141 2.025 15.261680871001685 
486 1 34.17572981369608 0.0 13.305055118309161 
487 1 36.132355566388604 2.025 13.826821985693833 
488 1 36.65412243377328 0.0 11.87019623300131 
489 1 34.69749668108075 2.025 11.348429365616639 
490 1 35.21926354846542 0.0 9.391803612924114 
491 1 37.175889301157945 2.025 9.913570480308785 
492 1 37.697656168542615 0.0 7.956944727616262 
493 1 35.74103041585009 2.025 7.43517786023159 
494 1 36.26279728323477 0.0 5.478552107539067 
495 1 38.21942303592729 2.025 6.000318974923738 
496 1 38.74118990331196 0.0 4.043693222231215 
497 1 36.78456415061944 2.025 3.5219263548465434 
498 1 37.306331018004116 0.0 1.5653006021540197 
499 1 39.26295677069664 2.025 2.0870674695386913 
500 1 39.78472363808131 0.0 0.13044171684616762 
501 1 25.566576501848974 0.0 61.30760691769907 
502 1 27.5232022545415 2.025 61.829373785083746 
503 1 28.044969121926172 0.0 59.87274803239122 
504 1 26.088343369233648 2.025 59.350981165006544 
505 1 26.610110236618322 0.0 57.39435541231402 
506 1 28.566735989310846 2.025 57.9161222796987 
507 1 29.08850285669552 0.0 55.95949652700617 
508 1 27.131877104002996 2.025 55.4377296596215 
509 1 27.65364397138767 0.0 53.48110390692898 
510 1 29.610269724080194 2.025 54.00287077431365 
511 1 30.132036591464868 0.0 52.046245021621125 
512 1 28.175410838772343 2.025 51.524478154236455 
513 1 28.69717770615701 0.0 49.56785240154393 
514 1 30.653803458849534 2.025 50.0896192689286 
515 1 31.175570326234208 0.0 48.13299351623608 
516 1 29.218944573541684 2.025 47.61122664885141 
517 1 29.740711440926358 0.0 45.65460089615888 
518 1 31.697337193618882 2.025 46.17636776354356 
519 1 32.219104061003556 0.0 44.219742010851036 
520 1 30.26247830831103 2.025 43.69797514346636 
521 1 30.784245175695705 0.0 41.741349390773834 
522 1 32.740870928388226 2.025 42.26311625815851 
523 1 33.262637795772896 0.0 40.30649050546599 
524 1 31.30601204308038 2.025 39.78472363808131 
525 1 31.827778910465053 0.0 37.828097885388786 
526 1 33.784404663157574 2.025 38.34986475277346 
527 1 34.306171530542244 0.0 36.39323900008094 
528 1 32.34954577784973 2.025 35.87147213269627 
529 1 32.8713126452344 0.0 33.914846380003745 
530 1 34.82793839792692 2.025 34.436613247388415 
531 1 35.34970526531159 0.0 32.47998749469589 
532 1 33.39307951261907 2.025 31.958220627311217 
533 1 33.914846380003745 0.0 30.001594874618696 
534 1 35.87147213269627 2.025 30.52336174200337 
535 1 36.39323900008094 0.0 28.566735989310846 
536 1 34.436613247388415 2.025 28.044969121926172 
537 1 34.958380114773085 0.0 26.088343369233648 
538 1 36.91500586746562 2.025 26.610110236618322 
539 1 37.43677273485029 0.0 24.653484483925798 
540 1 35.48014698215776 2.025 24.131717616541124 
541 1 36.00191384954243 0.0 22.1750918638486 
542 1 37.95853960223496 2.025 22.696858731233274 
543 1 38.480306469619634 0.0 20.740232978540753 
544 1 36.52368071692711 2.025 20.21846611115608 
545 1 37.04544758431178 0.0 18.261840358463555 
546 1 39.002073337004305 2.025 18.78360722584823 
547 1 39.52384020438898 0.0 16.826981473155705 
548 1 37.56721445169646 2.025 16.30521460577103 
549 1 38.08898131908113 0.0 14.348588853078505 
550 1 40.04560707177365 2.025 14.870355720463179 
551 1 40.56737393915833 0.0 12.913729967770657 
552 1 38.610748186465806 2.025 12.391963100385983 
553 1 39.13251505385047 0.0 10.435337347693459 
554 1 41.089140806543 2.025 10.957104215078132 
555 1 41.61090767392766 0.0 9.000478462385608 
556 1 39.65428192123514 2.025 8.478711595000934 
557 1 40.176048788619816 0.0 6.522085842308412 
558 1 42.13267454131234 2.025 7.043852709693086 
559 1 42.65444140869701 0.0 5.087226957000561 
560 1 40.69781565600449 2.025 4.565460089615888 
561 1 41.219582523389164 0.0 2.6088343369233646 
562 1 43.17620827608169 2.025 3.130601204308038 
563 1 43.69797514346636 0.0 1.1739754516155145 
564 1 41.741349390773834 2.025 0.652208584230841 
565 1 29.479828007234023 0.0 62.351140652468416 
566 1 31.95822062731122 0.0 60.91628176716057 
567 1 30.001594874618696 2.025 60.39451489977589 
568 1 30.52336174200337 0.0 58.43788914708337 
569 1 32.47998749469589 2.025 58.959656014468045 
570 1 33.00175436208057 0.0 57.00303026177552 
571 1 31.045128609388044 2.025 56.481263394390844 
572 1 31.566895476772718 0.0 54.52463764169832 
573 1 33.52352122946524 2.025 55.046404509083 
574 1 34.045288096849916 0.0 53.08977875639047 
575 1 32.08866234415739 2.025 52.5680118890058 
576 1 32.61042921154206 0.0 50.61138613631328 
577 1 34.567054964234586 2.025 51.13315300369795 
578 1 35.08882183161926 0.0 49.176527251005425 
579 1 33.13219607892674 2.025 48.654760383620754 
580 1 33.65396294631141 0.0 46.69813463092823 
581 1 35.610588699003934 2.025 47.2199014983129 
582 1 36.13235556638861 0.0 45.263275745620376 
583 1 34.17572981369609 2.025 44.741508878235706 
584 1 34.69749668108075 0.0 42.78488312554318 
585 1 36.65412243377328 2.025 43.30664999292786 
586 1 37.175889301157945 0.0 41.350024240235335 
587 1 35.21926354846542 2.025 40.82825737285066 
588 1 35.7410304158501 0.0 38.871631620158134 
589 1 37.69765616854262 2.025 39.39339848754281 
590 1 38.21942303592729 0.0 37.43677273485029 
591 1 36.26279728323477 2.025 36.91500586746561 
592 1 36.784564150619445 0.0 34.958380114773085 
593 1 38.74118990331197 2.025 35.48014698215776 
594 1 39.26295677069664 0.0 33.52352122946524 
595 1 37.306331018004116 2.025 33.00175436208056 
596 1 37.82809788538879 0.0 31.04512860938804 
597 1 39.78472363808132 2.025 31.566895476772714 
598 1 40.30649050546599 0.0 29.61026972408019 
599 1 38.34986475277346 2.025 29.088502856695516 
600 1 38.871631620158134 0.0 27.131877104002996 
601 1 40.828257372850665 2.025 27.653643971387666 
602 1 41.350024240235335 0.0 25.697018218695145 
603 1 39.39339848754281 2.025 25.17525135131047 
604 1 39.91516535492748 0.0 23.218625598617948 
605 1 41.871791107620005 2.025 23.74039246600262 
606 1 42.39355797500468 0.0 21.783766713310094 
607 1 40.43693222231216 2.025 21.261999845925423 
608 1 40.95869908969683 0.0 19.3053740932329 
609 1 42.91532484238935 2.025 19.82714096061757 
610 1 43.43709170977403 0.0 17.870515207925045 
611 1 41.480465957081506 2.025 17.34874834054037 
612 1 42.00223282446618 0.0 15.392122587847851 
613 1 43.9588585771587 2.025 15.913889455232525 